VARIABLES= x(m) T(C)
ZONE T=" time=   0.00000" I=  55   F=POINT
   0.40000E-01    26.85000
   0.40000E-01    26.85000
   0.40000E-01    26.85000
   0.40000E-01    26.85000
   0.40000E-01    26.85000
   0.40000E-01    26.85000
   0.40000E-01    26.85000
   0.40000E-01    26.85000
   0.40000E-01    26.85000
   0.40000E-01    26.85000
   0.40000E-01    26.85000
   0.40000E-01    26.85000
   0.40000E-01    26.85000
   0.40000E-01    26.85000
   0.40000E-01    26.85000
   0.40000E-01    26.85000
   0.38974E-01    26.85000
   0.37949E-01    26.85000
   0.36923E-01    26.85000
   0.35897E-01    26.85000
   0.34872E-01    26.85000
   0.33846E-01    26.85000
   0.32821E-01    26.85000
   0.31795E-01    26.85000
   0.30769E-01    26.85000
   0.29744E-01    26.85000
   0.28718E-01    26.85000
   0.27692E-01    26.85000
   0.26667E-01    26.85000
   0.25641E-01    26.85000
   0.24615E-01    26.85000
   0.23590E-01    26.85000
   0.22564E-01    26.85000
   0.21538E-01    26.85000
   0.20513E-01    26.85000
   0.19487E-01    26.85000
   0.18462E-01    26.85000
   0.17436E-01    26.85000
   0.16410E-01    26.85000
   0.15385E-01    26.85000
   0.14359E-01    26.85000
   0.13333E-01    26.85000
   0.12308E-01    26.85000
   0.11282E-01    26.85000
   0.10256E-01    26.85000
   0.92308E-02    26.85000
   0.82051E-02    26.85000
   0.71795E-02    26.85000
   0.61538E-02    26.85000
   0.51282E-02    26.85000
   0.41026E-02    26.85000
   0.30769E-02    26.85000
   0.20513E-02    26.85000
   0.10256E-02    26.85000
   0.00000E+00    26.85000
VARIABLES= x(m) T(C)
ZONE T=" time=  20.00015" I=  55   F=POINT
   0.38859E-01  2124.25023
   0.38546E-01  1980.18405
   0.38233E-01  1841.64828
   0.37920E-01  1708.61055
   0.37607E-01  1581.14813
   0.37294E-01  1459.37579
   0.36981E-01  1343.38709
   0.36668E-01  1233.25191
   0.36355E-01  1129.01431
   0.36042E-01  1030.69062
   0.35729E-01   938.26801
   0.35416E-01   851.70348
   0.35103E-01   770.92351
   0.34790E-01   695.92579
   0.34477E-01   626.85000
   0.34477E-01   626.85000
   0.33593E-01   288.42171
   0.32709E-01   134.54318
   0.31825E-01    68.33799
   0.30941E-01    41.62896
   0.30057E-01    31.72987
   0.29173E-01    28.34818
   0.28289E-01    27.27917
   0.27405E-01    26.96513
   0.26521E-01    26.87903
   0.25637E-01    26.85690
   0.24753E-01    26.85155
   0.23869E-01    26.85033
   0.22984E-01    26.85007
   0.22100E-01    26.85001
   0.21216E-01    26.85000
   0.20332E-01    26.85000
   0.19448E-01    26.85000
   0.18564E-01    26.85000
   0.17680E-01    26.85000
   0.16796E-01    26.85000
   0.15912E-01    26.85000
   0.15028E-01    26.85000
   0.14144E-01    26.85000
   0.13260E-01    26.85000
   0.12376E-01    26.85000
   0.11492E-01    26.85000
   0.10608E-01    26.85000
   0.97242E-02    26.85000
   0.88402E-02    26.85000
   0.79562E-02    26.85000
   0.70721E-02    26.85000
   0.61881E-02    26.85000
   0.53041E-02    26.85000
   0.44201E-02    26.85000
   0.35361E-02    26.85000
   0.26521E-02    26.85000
   0.17680E-02    26.85000
   0.88402E-03    26.85000
  -0.26368E-15    26.85000
 VARIABLES= x(m) T(C)
ZONE T=" time=  40.00015" I=  55   F=POINT
   0.37487E-01  2163.12919
   0.37080E-01  2012.38278
   0.36672E-01  1868.08291
   0.36265E-01  1730.09701
   0.35857E-01  1598.39163
   0.35450E-01  1473.01848
   0.35042E-01  1354.00749
   0.34635E-01  1241.36502
   0.34227E-01  1135.07239
   0.33819E-01  1035.08473
   0.33412E-01   941.33026
   0.33004E-01   853.71005
   0.32597E-01   772.09829
   0.32189E-01   696.44342
   0.31782E-01   626.85000
   0.31782E-01   626.85000
   0.30967E-01   371.63506
   0.30152E-01   220.02156
   0.29337E-01   133.10613
   0.28522E-01    83.85100
   0.27707E-01    56.47121
   0.26892E-01    41.75437
   0.26077E-01    34.11157
   0.25263E-01    30.27631
   0.24448E-01    28.41614
   0.23633E-01    27.54376
   0.22818E-01    27.14797
   0.22003E-01    26.97415
   0.21188E-01    26.90021
   0.20373E-01    26.86972
   0.19558E-01    26.85753
   0.18743E-01    26.85280
   0.17928E-01    26.85101
   0.17113E-01    26.85036
   0.16298E-01    26.85012
   0.15483E-01    26.85004
   0.14669E-01    26.85001
   0.13854E-01    26.85000
   0.13039E-01    26.85000
   0.12224E-01    26.85000
   0.11409E-01    26.85000
   0.10594E-01    26.85000
   0.97790E-02    26.85000
   0.89641E-02    26.85000
   0.81492E-02    26.85000
   0.73343E-02    26.85000
   0.65194E-02    26.85000
   0.57044E-02    26.85000
   0.48895E-02    26.85000
   0.40746E-02    26.85000
   0.32597E-02    26.85000
   0.24448E-02    26.85000
   0.16298E-02    26.85000
   0.81492E-03    26.85000
   0.55511E-16    26.85000
 VARIABLES= x(m) T(C)
ZONE T=" time=  60.00015" I=  55   F=POINT
   0.36100E-01  2179.67043
   0.35631E-01  2025.20003
   0.35163E-01  1877.79728
   0.34694E-01  1737.25477
   0.34226E-01  1603.46594
   0.33757E-01  1476.43405
   0.33289E-01  1356.14050
   0.32820E-01  1242.54356
   0.32352E-01  1135.57744
   0.31883E-01  1035.15175
   0.31414E-01   941.15130
   0.30946E-01   853.43641
   0.30477E-01   771.84366
   0.30009E-01   696.28966
   0.29540E-01   626.85000
   0.29540E-01   626.85000
   0.28783E-01   415.05631
   0.28025E-01   274.65068
   0.27268E-01   183.26577
   0.26511E-01   124.62103
   0.25753E-01    87.10297
   0.24996E-01    63.33837
   0.24238E-01    48.55137
   0.23481E-01    39.52443
   0.22723E-01    34.11854
   0.21966E-01    30.94285
   0.21208E-01    29.11289
   0.20451E-01    28.07848
   0.19694E-01    27.50488
   0.18936E-01    27.19283
   0.18179E-01    27.02627
   0.17421E-01    26.93902
   0.16664E-01    26.89417
   0.15906E-01    26.87153
   0.15149E-01    26.86031
   0.14391E-01    26.85486
   0.13634E-01    26.85225
   0.12877E-01    26.85102
   0.12119E-01    26.85046
   0.11362E-01    26.85020
   0.10604E-01    26.85009
   0.98468E-02    26.85004
   0.90893E-02    26.85002
   0.83319E-02    26.85001
   0.75744E-02    26.85000
   0.68170E-02    26.85000
   0.60595E-02    26.85000
   0.53021E-02    26.85000
   0.45447E-02    26.85000
   0.37872E-02    26.85000
   0.30298E-02    26.85000
   0.22723E-02    26.85000
   0.15149E-02    26.85000
   0.75744E-03    26.85000
   0.17347E-16    26.85000
 VARIABLES= x(m) T(C)
ZONE T=" time=  80.00015" I=  55   F=POINT
   0.34705E-01  2189.14691
   0.34192E-01  2032.15750
   0.33679E-01  1882.69558
   0.33167E-01  1740.49560
   0.32654E-01  1605.39714
   0.32141E-01  1477.36556
   0.31629E-01  1356.34438
   0.31116E-01  1242.25448
   0.30603E-01  1134.99364
   0.30090E-01  1034.43636
   0.29578E-01   940.43416
   0.29065E-01   852.81630
   0.28552E-01   771.39083
   0.28040E-01   696.05114
   0.27527E-01   626.85000
   0.27527E-01   626.85000
   0.26821E-01   443.68850
   0.26115E-01   314.06442
   0.25409E-01   223.34049
   0.24704E-01   160.56950
   0.23998E-01   117.25701
   0.23292E-01    87.42159
   0.22586E-01    66.99117
   0.21880E-01    53.15047
   0.21175E-01    43.88473
   0.20469E-01    37.75588
   0.19763E-01    33.75089
   0.19057E-01    31.16559
   0.18351E-01    29.51714
   0.17645E-01    28.47895
   0.16940E-01    27.83314
   0.16234E-01    27.43637
   0.15528E-01    27.19560
   0.14822E-01    27.05130
   0.14116E-01    26.96587
   0.13411E-01    26.91592
   0.12705E-01    26.88706
   0.11999E-01    26.87059
   0.11293E-01    26.86131
   0.10587E-01    26.85614
   0.98814E-02    26.85330
   0.91756E-02    26.85175
   0.84698E-02    26.85092
   0.77640E-02    26.85048
   0.70582E-02    26.85024
   0.63524E-02    26.85012
   0.56465E-02    26.85006
   0.49407E-02    26.85003
   0.42349E-02    26.85002
   0.35291E-02    26.85001
   0.28233E-02    26.85000
   0.21175E-02    26.85000
   0.14116E-02    26.85000
   0.70582E-03    26.85000
   0.13878E-16    26.85000
 VARIABLES= x(m) T(C)
ZONE T=" time= 100.00015" I=  55   F=POINT
   0.33305E-01  2195.31833
   0.32758E-01  2036.44932
   0.32212E-01  1885.46955
   0.31665E-01  1742.06682
   0.31119E-01  1606.03895
   0.30572E-01  1477.32079
   0.30026E-01  1355.82547
   0.29479E-01  1241.44395
   0.28933E-01  1134.04483
   0.28386E-01  1033.47461
   0.27840E-01   939.55829
   0.27293E-01   852.10039
   0.26747E-01   770.88632
   0.26200E-01   695.79151
   0.25654E-01   626.85000
   0.25654E-01   626.85000
   0.24996E-01   465.04969
   0.24338E-01   345.19843
   0.23680E-01   257.04315
   0.23022E-01   192.67043
   0.22365E-01   145.94629
   0.21707E-01   111.98921
   0.21049E-01    87.33573
   0.20391E-01    69.50688
   0.19734E-01    56.70334
   0.19076E-01    47.58126
   0.18418E-01    41.13409
   0.17760E-01    36.61434
   0.17102E-01    33.47169
   0.16445E-01    31.30457
   0.15787E-01    29.82257
   0.15129E-01    28.81757
   0.14471E-01    28.14177
   0.13813E-01    27.69117
   0.13156E-01    27.39327
   0.12498E-01    27.19800
   0.11840E-01    27.07109
   0.11182E-01    26.98931
   0.10525E-01    26.93706
   0.98668E-02    26.90396
   0.92090E-02    26.88317
   0.85512E-02    26.87023
   0.78934E-02    26.86223
   0.72356E-02    26.85734
   0.65778E-02    26.85437
   0.59201E-02    26.85258
   0.52623E-02    26.85151
   0.46045E-02    26.85088
   0.39467E-02    26.85051
   0.32889E-02    26.85029
   0.26311E-02    26.85016
   0.19734E-02    26.85009
   0.13156E-02    26.85006
   0.65778E-03    26.85004
   0.00000E+00    26.85003
 VARIABLES= x(m) T(C)
ZONE T=" time= 120.00015" I=  55   F=POINT
   0.31902E-01  2199.67121
   0.31328E-01  2039.34798
   0.30755E-01  1887.20402
   0.30182E-01  1742.88895
   0.29609E-01  1606.16711
   0.29035E-01  1476.94837
   0.28462E-01  1355.12104
   0.27889E-01  1240.55163
   0.27316E-01  1133.08505
   0.26742E-01  1032.54508
   0.26169E-01   938.73530
   0.25596E-01   851.44029
   0.25022E-01   770.42728
   0.24449E-01   695.55755
   0.23876E-01   626.85000
   0.23876E-01   626.85000
   0.23264E-01   482.13067
   0.22652E-01   371.11092
   0.22039E-01   286.34460
   0.21427E-01   221.94016
   0.20815E-01   173.25437
   0.20203E-01   136.47537
   0.19591E-01   108.66315
   0.18978E-01    87.64080
   0.18366E-01    71.79144
   0.17754E-01    59.89716
   0.17142E-01    51.01950
   0.16529E-01    44.43000
   0.15917E-01    39.56632
   0.15305E-01    35.99684
   0.14693E-01    33.39225
   0.14081E-01    31.50274
   0.13468E-01    30.14002
   0.12856E-01    29.16303
   0.12244E-01    28.46675
   0.11632E-01    27.97349
   0.11020E-01    27.62616
   0.10407E-01    27.38307
   0.97953E-02    27.21396
   0.91831E-02    27.09703
   0.85709E-02    27.01668
   0.79586E-02    26.96180
   0.73464E-02    26.92454
   0.67342E-02    26.89941
   0.61220E-02    26.88256
   0.55098E-02    26.87133
   0.48976E-02    26.86389
   0.42854E-02    26.85900
   0.36732E-02    26.85580
   0.30610E-02    26.85373
   0.24488E-02    26.85240
   0.18366E-02    26.85156
   0.12244E-02    26.85106
   0.61220E-03    26.85079
   0.34694E-17    26.85070
 VARIABLES= x(m) T(C)
ZONE T=" time= 140.00015" I=  55   F=POINT
   0.30496E-01  2202.89038
   0.29901E-01  2041.39768
   0.29306E-01  1888.32315
   0.28711E-01  1743.28469
   0.28116E-01  1606.01934
   0.27522E-01  1476.41623
   0.26927E-01  1354.34306
   0.26332E-01  1239.64610
   0.25737E-01  1132.15059
   0.25142E-01  1031.66155
   0.24547E-01   937.96478
   0.23952E-01   850.82841
   0.23357E-01   770.00461
   0.22762E-01   695.34308
   0.22167E-01   626.85000
   0.22167E-01   626.85000
   0.21599E-01   496.51679
   0.21031E-01   393.62947
   0.20462E-01   312.66764
   0.19894E-01   249.16899
   0.19325E-01   199.53551
   0.18757E-01   160.87201
   0.18189E-01   130.69240
   0.17620E-01   107.11528
   0.17052E-01    88.69834
   0.16483E-01    74.33639
   0.15915E-01    63.17069
   0.15347E-01    54.52324
   0.14778E-01    47.85226
   0.14210E-01    42.72639
   0.13641E-01    38.80361
   0.13073E-01    35.81375
   0.12505E-01    33.54433
   0.11936E-01    31.82893
   0.11368E-01    30.53776
   0.10799E-01    29.57002
   0.10231E-01    28.84781
   0.96627E-02    28.31115
   0.90943E-02    27.91412
   0.85259E-02    27.62166
   0.79575E-02    27.40718
   0.73891E-02    27.25059
   0.68207E-02    27.13677
   0.62523E-02    27.05441
   0.56839E-02    26.99508
   0.51155E-02    26.95255
   0.45471E-02    26.92222
   0.39788E-02    26.90069
   0.34104E-02    26.88552
   0.28420E-02    26.87492
   0.22736E-02    26.86761
   0.17052E-02    26.86270
   0.11368E-02    26.85957
   0.56839E-03    26.85782
   0.12837E-15    26.85722
 VARIABLES= x(m) T(C)
ZONE T=" time= 160.00015" I=  55   F=POINT
   0.29089E-01  2205.35783
   0.28476E-01  2042.91258
   0.27863E-01  1889.08382
   0.27251E-01  1743.46276
   0.26638E-01  1605.76382
   0.26025E-01  1475.85872
   0.25413E-01  1353.59787
   0.24800E-01  1238.81061
   0.24187E-01  1131.30580
   0.23574E-01  1030.87277
   0.22962E-01   937.28261
   0.22349E-01   850.28977
   0.21736E-01   769.63398
   0.21124E-01   695.15550
   0.20511E-01   626.85000
   0.20511E-01   626.85000
   0.19985E-01   509.06598
   0.19459E-01   413.78635
   0.18933E-01   336.88255
   0.18407E-01   274.95359
   0.17881E-01   225.20235
   0.17355E-01   185.33237
   0.16830E-01   153.39962
   0.16304E-01   127.78211
   0.15778E-01   107.21393
   0.15252E-01    90.69720
   0.14726E-01    77.44667
   0.14200E-01    66.83635
   0.13674E-01    58.36327
   0.13148E-01    51.61567
   0.12622E-01    46.25734
   0.12096E-01    42.01443
   0.11570E-01    38.66452
   0.11044E-01    36.02746
   0.10518E-01    33.95777
   0.99925E-02    32.33829
   0.94666E-02    31.07495
   0.89407E-02    30.09250
   0.84148E-02    29.33085
   0.78888E-02    28.74225
   0.73629E-02    28.28884
   0.68370E-02    27.94069
   0.63111E-02    27.67426
   0.57851E-02    27.47105
   0.52592E-02    27.31661
   0.47333E-02    27.19968
   0.42074E-02    27.11155
   0.36815E-02    27.04546
   0.31555E-02    26.99626
   0.26296E-02    26.96000
   0.21037E-02    26.93372
   0.15778E-02    26.91526
   0.10518E-02    26.90303
   0.52592E-03    26.89600
   0.23592E-15    26.89356
 VARIABLES= x(m) T(C)
ZONE T=" time= 180.00015" I=  55   F=POINT
   0.27680E-01  2207.29835
   0.27052E-01  2044.06219
   0.26425E-01  1889.60931
   0.25797E-01  1743.50844
   0.25170E-01  1605.45507
   0.24542E-01  1475.30624
   0.23915E-01  1352.89776
   0.23287E-01  1238.04469
   0.22660E-01  1130.54202
   0.22033E-01  1030.16586
   0.21405E-01   936.67485
   0.20778E-01   849.81187
   0.20150E-01   769.30614
   0.19523E-01   694.98997
   0.18895E-01   626.85000
   0.18895E-01   626.85000
   0.18411E-01   520.32571
   0.17926E-01   432.27547
   0.17442E-01   359.60778
   0.16957E-01   299.73129
   0.16473E-01   250.47631
   0.15988E-01   210.02830
   0.15504E-01   176.87155
   0.15019E-01   149.66690
   0.14535E-01   127.31487
   0.14050E-01   108.93486
   0.13566E-01    93.81585
   0.13081E-01    81.38416
   0.12597E-01    71.17303
   0.12112E-01    62.80137
   0.11628E-01    55.95147
   0.11143E-01    50.35804
   0.10659E-01    45.79998
   0.10174E-01    42.09340
   0.96898E-02    39.08561
   0.92053E-02    36.65013
   0.87208E-02    34.68236
   0.82363E-02    33.09601
   0.77518E-02    31.82003
   0.72673E-02    30.79605
   0.67828E-02    29.97624
   0.62984E-02    29.32150
   0.58139E-02    28.79992
   0.53294E-02    28.38556
   0.48449E-02    28.05738
   0.43604E-02    27.79838
   0.38759E-02    27.59487
   0.33914E-02    27.43587
   0.29069E-02    27.31266
   0.24224E-02    27.21834
   0.19380E-02    27.14756
   0.14535E-02    27.09625
   0.96898E-03    27.06140
   0.48449E-03    27.04096
   0.27756E-15    27.03371
 VARIABLES= x(m) T(C)
ZONE T=" time= 200.00015" I=  55   F=POINT
   0.26270E-01  2208.85184
   0.25630E-01  2044.95255
   0.24990E-01  1889.97799
   0.24350E-01  1743.47767
   0.23710E-01  1605.13109
   0.23070E-01  1474.78274
   0.22431E-01  1352.25603
   0.21791E-01  1237.35383
   0.21151E-01  1129.85942
   0.20511E-01  1029.53767
   0.19871E-01   936.13669
   0.19231E-01   849.38962
   0.18591E-01   769.01682
   0.17951E-01   694.84392
   0.17311E-01   626.85000
   0.17311E-01   626.85000
   0.16867E-01   530.65180
   0.16424E-01   449.57132
   0.15980E-01   381.30607
   0.15536E-01   323.89418
   0.15092E-01   275.66516
   0.14648E-01   235.19783
   0.14204E-01   201.28426
   0.13760E-01   172.89900
   0.13316E-01   149.10410
   0.12873E-01   129.13326
   0.12429E-01   112.35869
   0.11985E-01    98.26256
   0.11541E-01    86.41634
   0.11097E-01    76.46747
   0.10653E-01    68.12043
   0.10209E-01    61.12723
   0.97654E-02    55.27675
   0.93215E-02    50.38946
   0.88776E-02    46.31292
   0.84337E-02    42.91785
   0.79898E-02    40.09477
   0.75460E-02    37.75109
   0.71021E-02    35.80865
   0.66582E-02    34.20154
   0.62143E-02    32.87432
   0.57704E-02    31.78040
   0.53266E-02    30.88073
   0.48827E-02    30.14267
   0.44388E-02    29.53897
   0.39949E-02    29.04698
   0.35510E-02    28.64797
   0.31072E-02    28.32649
   0.26633E-02    28.06991
   0.22194E-02    27.86803
   0.17755E-02    27.71272
   0.13316E-02    27.59763
   0.88776E-03    27.51805
   0.44388E-03    27.47066
   0.26368E-15    27.45349
 VARIABLES= x(m) T(C)
ZONE T=" time= 220.00015" I=  55   F=POINT
   0.25565E-01   814.60382
   0.24877E-01   878.24444
   0.24189E-01   928.72481
   0.23501E-01   964.90108
   0.22812E-01   986.30911
   0.22124E-01   993.11970
   0.21436E-01   986.06834
   0.20748E-01   966.36625
   0.20060E-01   935.59824
   0.19372E-01   895.61281
   0.18684E-01   848.41003
   0.17995E-01   796.03327
   0.17307E-01   740.46385
   0.16619E-01   683.50036
   0.15931E-01   626.85000
   0.15931E-01   626.85000
   0.15523E-01   551.69806
   0.15114E-01   482.42872
   0.14706E-01   420.00663
   0.14297E-01   364.69981
   0.13889E-01   316.30657
   0.13480E-01   274.34521
   0.13072E-01   238.19574
   0.12663E-01   207.19568
   0.12255E-01   180.69842
   0.11846E-01   158.06188
   0.11438E-01   138.71656
   0.11029E-01   122.17709
   0.10621E-01   108.03148
   0.10212E-01    95.93033
   0.98037E-02    85.57898
   0.93952E-02    76.72871
   0.89868E-02    69.16756
   0.85783E-02    62.71466
   0.81698E-02    57.21361
   0.77613E-02    52.52935
   0.73528E-02    48.54531
   0.69443E-02    45.16103
   0.65358E-02    42.29004
   0.61273E-02    39.85797
   0.57188E-02    37.80099
   0.53104E-02    36.06436
   0.49019E-02    34.60127
   0.44934E-02    33.37176
   0.40849E-02    32.34178
   0.36764E-02    31.48249
   0.32679E-02    30.76949
   0.28594E-02    30.18231
   0.24509E-02    29.70393
   0.20424E-02    29.32030
   0.16340E-02    29.02006
   0.12255E-02    28.79427
   0.81698E-03    28.63611
   0.40849E-03    28.54082
   0.26715E-15    28.50547
 VARIABLES= x(m) T(C)
ZONE T=" time= 240.00015" I=  55   F=POINT
   0.25565E-01   576.88751
   0.24873E-01   605.94556
   0.24181E-01   630.88782
   0.23489E-01   651.35643
   0.22797E-01   667.18432
   0.22105E-01   678.28966
   0.21413E-01   684.66975
   0.20721E-01   686.39512
   0.20029E-01   683.60381
   0.19337E-01   676.49583
   0.18645E-01   665.32768
   0.17953E-01   650.40674
   0.17261E-01   632.08540
   0.16569E-01   610.75455
   0.15877E-01   586.88341
   0.15877E-01   586.88341
   0.15470E-01   551.28337
   0.15063E-01   513.86394
   0.14656E-01   475.51257
   0.14249E-01   437.04408
   0.13842E-01   399.17704
   0.13435E-01   362.51843
   0.13028E-01   327.55619
   0.12620E-01   294.65881
   0.12213E-01   264.08101
   0.11806E-01   235.97386
   0.11399E-01   210.39805
   0.10992E-01   187.33878
   0.10585E-01   166.70336
   0.10178E-01   148.34812
   0.97707E-02   132.10752
   0.93635E-02   117.80489
   0.89564E-02   105.26065
   0.85493E-02    94.29842
   0.81422E-02    84.75149
   0.77351E-02    76.46392
   0.73280E-02    69.29173
   0.69209E-02    63.10340
   0.65138E-02    57.77869
   0.61067E-02    53.20899
   0.56995E-02    49.29716
   0.52924E-02    45.95708
   0.48853E-02    43.11297
   0.44782E-02    40.69863
   0.40711E-02    38.65660
   0.36640E-02    36.93733
   0.32569E-02    35.49839
   0.28498E-02    34.30374
   0.24427E-02    33.32308
   0.20356E-02    32.53123
   0.16284E-02    31.90768
   0.12213E-02    31.43612
   0.81422E-03    31.10413
   0.40711E-03    30.90292
   0.26021E-15    30.82710
 VARIABLES= x(m) T(C)
ZONE T=" time= 260.00015" I=  55   F=POINT
   0.25565E-01   488.39656
   0.24873E-01   507.09669
   0.24181E-01   523.58751
   0.23489E-01   537.69882
   0.22797E-01   549.29378
   0.22105E-01   558.27143
   0.21413E-01   564.56828
   0.20721E-01   568.15896
   0.20029E-01   569.05596
   0.19337E-01   567.30845
   0.18645E-01   563.00030
   0.17953E-01   556.24739
   0.17261E-01   547.19423
   0.16569E-01   536.01017
   0.15877E-01   522.88514
   0.15877E-01   522.88514
   0.15470E-01   502.46773
   0.15063E-01   480.11391
   0.14656E-01   456.23654
   0.14249E-01   431.24713
   0.13842E-01   405.54575
   0.13435E-01   379.51207
   0.13028E-01   353.49778
   0.12620E-01   327.82055
   0.12213E-01   302.75967
   0.11806E-01   278.55331
   0.11399E-01   255.39736
   0.10992E-01   233.44572
   0.10585E-01   212.81183
   0.10178E-01   193.57121
   0.97707E-02   175.75962
   0.93635E-02   159.37372
   0.89564E-02   144.38683
   0.85493E-02   130.75388
   0.81422E-02   118.41572
   0.77351E-02   107.30312
   0.73280E-02    97.34011
   0.69209E-02    88.44759
   0.65138E-02    80.54633
   0.61067E-02    73.55671
   0.56995E-02    67.40219
   0.52924E-02    62.00836
   0.48853E-02    57.30395
   0.44782E-02    53.22181
   0.40711E-02    49.69956
   0.36640E-02    46.68007
   0.32569E-02    44.11171
   0.28498E-02    41.94853
   0.24427E-02    40.15024
   0.20356E-02    38.68218
   0.16284E-02    37.51520
   0.12213E-02    36.62558
   0.81422E-03    35.99484
   0.40711E-03    35.60965
   0.26021E-15    35.46170
 VARIABLES= x(m) T(C)
ZONE T=" time= 280.00015" I=  55   F=POINT
   0.25565E-01   432.70287
   0.24873E-01   446.42205
   0.24181E-01   458.64086
   0.23489E-01   469.26358
   0.22797E-01   478.21091
   0.22105E-01   485.42114
   0.21413E-01   490.85096
   0.20721E-01   494.47592
   0.20029E-01   496.29066
   0.19337E-01   496.30861
   0.18645E-01   494.56157
   0.17953E-01   491.09880
   0.17261E-01   485.98592
   0.16569E-01   479.30355
   0.15877E-01   471.14570
   0.15877E-01   471.14570
   0.15470E-01   458.05473
   0.15063E-01   443.33033
   0.14656E-01   427.19911
   0.14249E-01   409.89550
   0.13842E-01   391.65685
   0.13435E-01   372.71873
   0.13028E-01   353.31069
   0.12620E-01   333.65229
   0.12213E-01   313.94985
   0.11806E-01   294.39364
   0.11399E-01   275.15572
   0.10992E-01   256.38843
   0.10585E-01   238.22343
   0.10178E-01   220.77139
   0.97707E-02   204.12210
   0.93635E-02   188.34517
   0.89564E-02   173.48481
   0.85493E-02   159.56572
   0.81422E-02   146.59738
   0.77351E-02   134.57628
   0.73280E-02   123.48796
   0.69209E-02   113.30904
   0.65138E-02   104.00907
   0.61067E-02    95.55222
   0.56995E-02    87.89978
   0.52924E-02    81.01104
   0.48853E-02    74.84355
   0.44782E-02    69.35551
   0.40711E-02    64.50529
   0.36640E-02    60.25222
   0.32569E-02    56.55732
   0.28498E-02    53.38403
   0.24427E-02    50.69879
   0.20356E-02    48.47153
   0.16284E-02    46.67602
   0.12213E-02    45.29021
   0.81422E-03    44.29641
   0.40711E-03    43.68150
   0.26021E-15    43.43699
 VARIABLES= x(m) T(C)
ZONE T=" time= 300.00015" I=  55   F=POINT
   0.25565E-01   392.49564
   0.24873E-01   403.27163
   0.24181E-01   412.93425
   0.23489E-01   421.42255
   0.22797E-01   428.68521
   0.22105E-01   434.68119
   0.21413E-01   439.38017
   0.20721E-01   442.76283
   0.20029E-01   444.82103
   0.19337E-01   445.55777
   0.18645E-01   444.98704
   0.17953E-01   443.13348
   0.17261E-01   440.03191
   0.16569E-01   435.72674
   0.15877E-01   430.27125
   0.15877E-01   430.27125
   0.15470E-01   421.27922
   0.15063E-01   410.94549
   0.14656E-01   399.40746
   0.14249E-01   386.81055
   0.13842E-01   373.30556
   0.13435E-01   359.04616
   0.13028E-01   344.18639
   0.12620E-01   328.87832
   0.12213E-01   313.26985
   0.11806E-01   297.50282
   0.11399E-01   281.71124
   0.10992E-01   266.01995
   0.10585E-01   250.54339
   0.10178E-01   235.38481
   0.97707E-02   220.63568
   0.93635E-02   206.37539
   0.89564E-02   192.67124
   0.85493E-02   179.57607
   0.81422E-02   167.12890
   0.77351E-02   155.35802
   0.73280E-02   144.28205
   0.69209E-02   133.91109
   0.65138E-02   124.24779
   0.61067E-02   115.28849
   0.56995E-02   107.02427
   0.52924E-02    99.44199
   0.48853E-02    92.52530
   0.44782E-02    86.25655
   0.40711E-02    80.61623
   0.36640E-02    75.58381
   0.32569E-02    71.13925
   0.28498E-02    67.26270
   0.24427E-02    63.93496
   0.20356E-02    61.13803
   0.16284E-02    58.85558
   0.12213E-02    57.07334
   0.81422E-03    55.77946
   0.40711E-03    54.96472
   0.26021E-15    54.62272
 VARIABLES= x(m) T(C)
ZONE T=" time= 320.00015" I=  55   F=POINT
   0.25565E-01   361.52054
   0.24873E-01   370.36122
   0.24181E-01   378.33041
   0.23489E-01   385.38608
   0.22797E-01   391.49251
   0.22105E-01   396.62061
   0.21413E-01   400.74821
   0.20721E-01   403.86026
   0.20029E-01   405.94893
   0.19337E-01   407.01364
   0.18645E-01   407.06099
   0.17953E-01   406.10466
   0.17261E-01   404.16509
   0.16569E-01   401.26929
   0.15877E-01   397.45037
   0.15877E-01   397.45037
   0.15470E-01   390.98873
   0.15063E-01   383.41629
   0.14656E-01   374.82291
   0.14249E-01   365.30513
   0.13842E-01   354.96480
   0.13435E-01   343.90748
   0.13028E-01   332.24100
   0.12620E-01   320.07397
   0.12213E-01   307.51442
   0.11806E-01   294.66845
   0.11399E-01   281.63905
   0.10992E-01   268.52501
   0.10585E-01   255.42002
   0.10178E-01   242.41184
   0.97707E-02   229.58168
   0.93635E-02   217.00374
   0.89564E-02   204.74489
   0.85493E-02   192.86444
   0.81422E-02   181.41247
   0.77351E-02   170.43013
   0.73280E-02   159.95124
   0.69209E-02   150.00281
   0.65138E-02   140.60564
   0.61067E-02   131.77499
   0.56995E-02   123.52116
   0.52924E-02   115.85018
   0.48853E-02   108.76444
   0.44782E-02   102.26331
   0.40711E-02    96.34375
   0.36640E-02    91.00142
   0.32569E-02    86.23084
   0.28498E-02    82.02553
   0.24427E-02    78.37840
   0.20356E-02    75.28249
   0.16284E-02    72.73124
   0.12213E-02    70.71837
   0.81422E-03    69.23816
   0.40711E-03    68.28565
   0.26021E-15    67.85680
 VARIABLES= x(m) T(C)
ZONE T=" time= 340.00015" I=  55   F=POINT
   0.25565E-01   336.64552
   0.24873E-01   344.12229
   0.24181E-01   350.89189
   0.23489E-01   356.92370
   0.22797E-01   362.19153
   0.22105E-01   366.67378
   0.21413E-01   370.35365
   0.20721E-01   373.21925
   0.20029E-01   375.26371
   0.19337E-01   376.48519
   0.18645E-01   376.88686
   0.17953E-01   376.47684
   0.17261E-01   375.26809
   0.16569E-01   373.27819
   0.15877E-01   370.52921
   0.15877E-01   370.52921
   0.15470E-01   365.74626
   0.15063E-01   360.03098
   0.14656E-01   353.44563
   0.14249E-01   346.05791
   0.13842E-01   337.94012
   0.13435E-01   329.16817
   0.13028E-01   319.82063
   0.12620E-01   309.97786
   0.12213E-01   299.72099
   0.11806E-01   289.13110
   0.11399E-01   278.28836
   0.10992E-01   267.27123
   0.10585E-01   256.15581
   0.10178E-01   245.01513
   0.97707E-02   233.91868
   0.93635E-02   222.93190
   0.89564E-02   212.11585
   0.85493E-02   201.52694
   0.81422E-02   191.21671
   0.77351E-02   181.23017
   0.73280E-02   171.60672
   0.69209E-02   162.38072
   0.65138E-02   153.58170
   0.61067E-02   145.23471
   0.56995E-02   137.36067
   0.52924E-02   129.97674
   0.48853E-02   123.09668
   0.44782E-02   116.73125
   0.40711E-02   110.88860
   0.36640E-02   105.57462
   0.32569E-02   100.79328
   0.28498E-02    96.54697
   0.24427E-02    92.83727
   0.20356E-02    89.66474
   0.16284E-02    87.02901
   0.12213E-02    84.92895
   0.81422E-03    83.36290
   0.40711E-03    82.32874
   0.26021E-15    81.82397
 VARIABLES= x(m) T(C)
ZONE T=" time= 360.00015" I=  55   F=POINT
   0.25565E-01   316.08021
   0.24873E-01   322.54761
   0.24181E-01   328.42608
   0.23489E-01   333.69245
   0.22797E-01   338.32673
   0.22105E-01   342.31234
   0.21413E-01   345.63615
   0.20721E-01   348.28865
   0.20029E-01   350.26396
   0.19337E-01   351.55987
   0.18645E-01   352.17785
   0.17953E-01   352.12301
   0.17261E-01   351.40402
   0.16569E-01   350.03302
   0.15877E-01   348.02551
   0.15877E-01   348.02551
   0.15470E-01   344.41989
   0.15063E-01   340.02132
   0.14656E-01   334.87501
   0.14249E-01   329.03061
   0.13842E-01   322.54163
   0.13435E-01   315.46482
   0.13028E-01   307.85958
   0.12620E-01   299.78728
   0.12213E-01   291.31066
   0.11806E-01   282.49321
   0.11399E-01   273.39857
   0.10992E-01   264.08997
   0.10585E-01   254.62970
   0.10178E-01   245.07860
   0.97707E-02   235.49566
   0.93635E-02   225.93760
   0.89564E-02   216.45853
   0.85493E-02   207.10971
   0.81422E-02   197.93928
   0.77351E-02   188.99187